[Molden Format]
[Title]
 Molden file created by orca_2mkl for BaseName=casscf

[Atoms] AU
Be   1   4          0.0000000000         0.0000000000         0.0000000000 
[GTO]
  1 0
s   8 1.0 
     2940.0000000000         0.1933733689
      441.2000000000         0.3590074977
      100.5000000000         0.6014941199
       28.4300000000         0.8768584593
        9.1690000000         1.0121686916
        3.1960000000         0.7686174958
        1.1590000000         0.2347582017
        0.1811000000         0.0024887904
s   8 1.0 
     2940.0000000000        -0.0715701731
      441.2000000000        -0.1355252485
      100.5000000000        -0.2234745348
       28.4300000000        -0.3465543304
        9.1690000000        -0.4091402007
        3.1960000000        -0.4205441106
        1.1590000000        -0.2172194927
        0.1811000000         0.2147381509
s   1 1.0 
        0.0589000000         0.0852111768
p   3 1.0 
        3.6190000000         0.3241649121
        0.7110000000         0.2466799313
        0.1951000000         0.1485250349
p   1 1.0 
        0.0601800000         0.0424869267
d   1 1.0 
        0.2354000000         0.2267939087

[5D]
[7F]
[9G]
[MO]
 Sym=     1a
 Ene= -4.71073371776056E+00
 Spin= Alpha
 Occup= 2.000000
  1      -1.000539002199
  2       0.006404754300
  3       0.011187743460
  4       0.000000000000
  5       0.000000000000
  6       0.000000000000
  7       0.000000000000
  8       0.000000000000
  9       0.000000000000
 10      -0.000000000000
 11       0.000000000000
 12       0.000000000000
 13      -0.000000000000
 14       0.000000000000
 Sym=     1a
 Ene= -2.78223727710339E-01
 Spin= Alpha
 Occup= 1.805354
  1      -0.027995191218
  2      -0.529402064773
  3      -0.540231607929
  4       0.000000000000
  5       0.000000000000
  6       0.000000000000
  7       0.000000000000
  8       0.000000000000
  9       0.000000000000
 10       0.000000000000
 11       0.000000000000
 12       0.000000000000
 13      -0.000000000000
 14       0.000000000000
 Sym=     1a
 Ene= 1.13171951586948E-01
 Spin= Alpha
 Occup= 0.064882
  1       0.000000000000
  2       0.000000000000
  3       0.000000000000
  4       0.000000000000
  5       0.000000000000
  6      -0.785463014560
  7       0.000000000000
  8       0.000000000000
  9      -0.309462566891
 10       0.000000000000
 11       0.000000000000
 12       0.000000000000
 13       0.000000000000
 14       0.000000000000
 Sym=     1a
 Ene= 1.13171951586949E-01
 Spin= Alpha
 Occup= 0.064882
  1       0.000000000000
  2       0.000000000000
  3       0.000000000000
  4      -0.785463014560
  5       0.000000000000
  6       0.000000000000
  7      -0.309462566891
  8       0.000000000000
  9       0.000000000000
 10       0.000000000000
 11       0.000000000000
 12       0.000000000000
 13       0.000000000000
 14       0.000000000000
 Sym=     1a
 Ene= 1.13171951586948E-01
 Spin= Alpha
 Occup= 0.064882
  1       0.000000000000
  2       0.000000000000
  3       0.000000000000
  4       0.000000000000
  5      -0.785463014560
  6       0.000000000000
  7       0.000000000000
  8      -0.309462566891
  9       0.000000000000
 10       0.000000000000
 11       0.000000000000
 12       0.000000000000
 13       0.000000000000
 14       0.000000000000
 Sym=     1a
 Ene= 3.03750031172817E-01
 Spin= Alpha
 Occup= 0.000000
  1       0.622298580602
  2       1.665662537464
  3      -1.653094176390
  4       0.000000000000
  5       0.000000000000
  6       0.000000000000
  7       0.000000000000
  8       0.000000000000
  9       0.000000000000
 10      -0.000000000000
 11       0.000000000000
 12       0.000000000000
 13       0.000000000000
 14       0.000000000000
 Sym=     1a
 Ene= 6.50398803998793E-01
 Spin= Alpha
 Occup= 0.000000
  1       0.000000000000
  2       0.000000000000
  3       0.000000000000
  4       0.000000000000
  5       0.000000000000
  6       0.000000000000
  7       0.000000000000
  8       0.000000000000
  9       0.000000000000
 10       0.000000000000
 11       0.000000000000
 12       0.000000000000
 13       0.000000000000
 14       1.000000000000
 Sym=     1a
 Ene= 6.50398803998793E-01
 Spin= Alpha
 Occup= 0.000000
  1       0.000000000000
  2       0.000000000000
  3       0.000000000000
  4       0.000000000000
  5       0.000000000000
  6       0.000000000000
  7       0.000000000000
  8       0.000000000000
  9       0.000000000000
 10       0.000000000000
 11       0.000000000000
 12       1.000000000000
 13       0.000000000000
 14       0.000000000000
 Sym=     1a
 Ene= 6.50398803998793E-01
 Spin= Alpha
 Occup= 0.000000
  1      -0.000000000000
  2      -0.000000000000
  3      -0.000000000000
  4       0.000000000000
  5       0.000000000000
  6       0.000000000000
  7       0.000000000000
  8       0.000000000000
  9       0.000000000000
 10      -0.997641049926
 11       0.000000000000
 12       0.000000000000
 13       0.068646452946
 14       0.000000000000
 Sym=     1a
 Ene= 6.50398803998793E-01
 Spin= Alpha
 Occup= 0.000000
  1       0.000000000000
  2       0.000000000000
  3       0.000000000000
  4       0.000000000000
  5       0.000000000000
  6       0.000000000000
  7       0.000000000000
  8       0.000000000000
  9       0.000000000000
 10       0.000000000000
 11       1.000000000000
 12       0.000000000000
 13       0.000000000000
 14       0.000000000000
 Sym=     1a
 Ene= 6.50398803998793E-01
 Spin= Alpha
 Occup= 0.000000
  1      -0.000000000000
  2      -0.000000000000
  3       0.000000000000
  4       0.000000000000
  5       0.000000000000
  6       0.000000000000
  7       0.000000000000
  8       0.000000000000
  9       0.000000000000
 10       0.068646452946
 11       0.000000000000
 12       0.000000000000
 13       0.997641049926
 14       0.000000000000
 Sym=     1a
 Ene= 3.00615430628422E-01
 Spin= Alpha
 Occup= 0.000000
  1       0.000000000000
  2       0.000000000000
  3       0.000000000000
  4       0.000000000000
  5       0.000000000000
  6       0.958978324308
  7       0.000000000000
  8       0.000000000000
  9      -1.200343489768
 10       0.000000000000
 11       0.000000000000
 12       0.000000000000
 13       0.000000000000
 14       0.000000000000
 Sym=     1a
 Ene= 3.00615430628423E-01
 Spin= Alpha
 Occup= 0.000000
  1       0.000000000000
  2       0.000000000000
  3       0.000000000000
  4       0.000000000000
  5       0.958978324308
  6       0.000000000000
  7       0.000000000000
  8      -1.200343489768
  9       0.000000000000
 10       0.000000000000
 11       0.000000000000
 12       0.000000000000
 13       0.000000000000
 14       0.000000000000
 Sym=     1a
 Ene= 3.00615430628422E-01
 Spin= Alpha
 Occup= 0.000000
  1       0.000000000000
  2       0.000000000000
  3       0.000000000000
  4       0.958978324308
  5       0.000000000000
  6       0.000000000000
  7      -1.200343489768
  8       0.000000000000
  9       0.000000000000
 10       0.000000000000
 11       0.000000000000
 12       0.000000000000
 13       0.000000000000
 14       0.000000000000
