[Molden Format]
[Title]
 Molden file created by orca_2mkl for BaseName=casscf

[Atoms] AU
Be   1   4          0.0000000000         0.0000000000         0.0000000000 
[GTO]
  1 0
s  19 1.0 
   139330.0000000000         0.0247413016
    26774.0000000000         0.0437007099
     6112.0000000000         0.0835814925
     1632.9000000000         0.1434942130
      503.0300000000         0.2293503821
      176.0300000000         0.3399137178
       68.9390000000         0.4657724171
       29.7680000000         0.5802490245
       13.9630000000         0.6408083181
        7.0090000000         0.6133885955
        3.7094000000         0.4958681108
        2.0392000000         0.3114890801
        1.1472000000         0.1265804334
        0.6507000000         0.0247421556
        0.3665900000         0.0013605307
        0.2021100000         0.0000118857
        0.1074200000        -0.0000019568
        0.0542310000         0.0000004343
        0.0256190000         0.0000000000
s  19 1.0 
   139330.0000000000         0.0046083166
    26774.0000000000         0.0081398641
     6112.0000000000         0.0155701359
     1632.9000000000         0.0267463145
      503.0300000000         0.0428164755
      176.0300000000         0.0637365622
       68.9390000000         0.0882206393
       29.7680000000         0.1122532455
       13.9630000000         0.1288093861
        7.0090000000         0.1319900288
        3.7094000000         0.1219282526
        2.0392000000         0.1018335455
        1.1472000000         0.0699963409
        0.6507000000         0.0234082599
        0.3665900000        -0.0260057233
        0.2021100000        -0.0594996055
        0.1074200000        -0.0606110503
        0.0542310000        -0.0241207545
        0.0256190000        -0.0015126535
s  19 1.0 
   139330.0000000000        -0.0068811223
    26774.0000000000        -0.0121501263
     6112.0000000000        -0.0232540607
     1632.9000000000        -0.0399313619
      503.0300000000        -0.0640162082
      176.0300000000        -0.0954103579
       68.9390000000        -0.1330323809
       29.7680000000        -0.1713238310
       13.9630000000        -0.2023426393
        7.0090000000        -0.2108050177
        3.7094000000        -0.1936295952
        2.0392000000        -0.1578478318
        1.1472000000        -0.1406983917
        0.6507000000        -0.0245346164
        0.3665900000         0.2424442814
        0.2021100000         0.2134971675
        0.1074200000        -0.0495783515
        0.0542310000        -0.0722650798
        0.0256190000        -0.0053107387
p   8 1.0 
       45.7000000000         0.0948228477
       10.6000000000         0.1342179225
        3.0800000000         0.1156356717
        1.2300000000         0.0728431187
        0.5100000000         0.1001730495
        0.2300000000         0.0933487336
        0.1060000000         0.0381867042
        0.0400000000         0.0017560235

[5D]
[7F]
[9G]
[MO]
 Sym=     1a
 Ene= -4.71237134611478E+00
 Spin= Alpha
 Occup= 2.000000
  1       1.000000000000
  2       0.000000000000
  3       0.000000000000
  4       0.000000000000
  5       0.000000000000
  6       0.000000000000
 Sym=     1a
 Ene= -2.78038228026886E-01
 Spin= Alpha
 Occup= 1.805229
  1       0.000000000000
  2       1.000000000000
  3       0.000000000000
  4       0.000000000000
  5       0.000000000000
  6       0.000000000000
 Sym=     1a
 Ene= 1.14627606783590E-01
 Spin= Alpha
 Occup= 0.064924
  1       0.000000000000
  2       0.000000000000
  3       0.000000000000
  4       1.000000000000
  5       0.000000000000
  6       0.000000000000
 Sym=     1a
 Ene= 1.14627606783589E-01
 Spin= Alpha
 Occup= 0.064924
  1       0.000000000000
  2       0.000000000000
  3       0.000000000000
  4       0.000000000000
  5       1.000000000000
  6       0.000000000000
 Sym=     1a
 Ene= 1.14627606783588E-01
 Spin= Alpha
 Occup= 0.064924
  1       0.000000000000
  2       0.000000000000
  3       0.000000000000
  4       0.000000000000
  5       0.000000000000
  6       1.000000000000
 Sym=     1a
 Ene= 3.92498322173746E-01
 Spin= Alpha
 Occup= 0.000000
  1       0.000000000000
  2       0.000000000000
  3       1.000000000000
  4       0.000000000000
  5       0.000000000000
  6       0.000000000000
